
     Program BANDS v.5.3.0 (svn rev. 11974) starts on  2Mar2018 at 15:39:28 

     This program is part of the open-source Quantum ESPRESSO suite
     for quantum simulation of materials; please cite
         "P. Giannozzi et al., J. Phys.:Condens. Matter 21 395502 (2009);
          URL http://www.quantum-espresso.org", 
     in publications or presentations arising from this work. More details at
     http://www.quantum-espresso.org/quote

     Serial version

     Reading data from directory:
     ./tmp/MgO.save

   Info: using nr1, nr2, nr3 values from input

   Info: using nr1, nr2, nr3 values from input

     IMPORTANT: XC functional enforced from input :
     Exchange-correlation      = SLA  PW   PBE  PBE ( 1  4  3  4 0 0)
     Any further DFT definition will be discarded
     Please, verify this is what you really want


     G-vector sticks info
     --------------------
     sticks:   dense  smooth     PW     G-vecs:    dense   smooth      PW
     Sum        1039     517    163                22227     7823    1363


     Check: negative/imaginary core charge=   -0.000001    0.000000
     high-symmetry point:  0.0000 0.0000 0.0000   x coordinate   0.0000
     high-symmetry point:  0.0000 0.7071 0.0000   x coordinate   0.7071
     high-symmetry point:  0.1768 0.7071 0.1768   x coordinate   0.9571
     high-symmetry point:  0.5303 0.5303 0.0000   x coordinate   0.9571
     high-symmetry point:  0.0000 0.0000 0.0000   x coordinate   1.7071
     high-symmetry point:  0.3536 0.3536 0.3536   x coordinate   2.3195
     high-symmetry point:  0.3536 0.7071 0.0000   x coordinate   2.8195
     high-symmetry point:  0.0000 0.7071 0.0000   x coordinate   3.1730

     Plottable bands written to file MgO_bands.dat.gnu
     Bands written to file MgO_bands.dat

     BANDS        :     2.35s CPU         2.30s WALL


   This run was terminated on:  15:39:30   2Mar2018            

=------------------------------------------------------------------------------=
   JOB DONE.
=------------------------------------------------------------------------------=
