
     Program PWSCF v.5.3.0 (svn rev. 11974) starts on  2Mar2018 at 15:38: 1 

     This program is part of the open-source Quantum ESPRESSO suite
     for quantum simulation of materials; please cite
         "P. Giannozzi et al., J. Phys.:Condens. Matter 21 395502 (2009);
          URL http://www.quantum-espresso.org", 
     in publications or presentations arising from this work. More details at
     http://www.quantum-espresso.org/quote

     Serial version
     Waiting for input...
     Reading input from standard input

     Current dimensions of program PWSCF are:
     Max number of different atomic species (ntypx) = 10
     Max number of k-points (npk) =  40000
     Max angular momentum in pseudopotentials (lmaxx) =  3

     G-vector sticks info
     --------------------
     sticks:   dense  smooth     PW     G-vecs:    dense   smooth      PW
     Sum        1039     517    163                22227     7823    1411


     Title: 
     MgO                                                                        


     bravais-lattice index     =            0
     lattice parameter (alat)  =       5.6284  a.u.
     unit-cell volume          =     126.0797 (a.u.)^3
     number of atoms/cell      =            2
     number of atomic types    =            2
     number of electrons       =        16.00
     number of Kohn-Sham states=            8
     kinetic-energy cutoff     =      60.0000  Ry
     charge density cutoff     =     480.0000  Ry
     convergence threshold     =      1.0E-07
     mixing beta               =       0.5000
     number of iterations used =            8  plain     mixing
     Exchange-correlation      = SLA  PW   PBE  PBE ( 1  4  3  4 0 0)

     celldm(1)=   5.628422  celldm(2)=   0.000000  celldm(3)=   0.000000
     celldm(4)=   0.000000  celldm(5)=   0.000000  celldm(6)=   0.000000

     crystal axes: (cart. coord. in units of alat)
               a(1) = (   0.000000   0.707107   0.707107 )  
               a(2) = (   0.707107   0.000000   0.707107 )  
               a(3) = (   0.707107   0.707107   0.000000 )  

     reciprocal axes: (cart. coord. in units 2 pi/alat)
               b(1) = ( -0.707107  0.707107  0.707107 )  
               b(2) = (  0.707107 -0.707107  0.707107 )  
               b(3) = (  0.707107  0.707107 -0.707107 )  


     PseudoPot. # 1 for Mg read from file:
     /opt/espresso-5.3.0/pseudo/US_v1.5/mg_pbe_v1.4.uspp.F.UPF
     MD5 check sum: 8ffbd8f729fef71095aac5bd8316fb1f
     Pseudo is Ultrasoft, Zval = 10.0
     Generated by new atomic code, or converted to UPF format
     Using radial grid of  821 points,  7 beta functions with: 
                l(1) =   0
                l(2) =   0
                l(3) =   0
                l(4) =   1
                l(5) =   1
                l(6) =   2
                l(7) =   2
     Q(r) pseudized with  8 coefficients,  rinner =    1.200   1.200   1.200
                                                       1.200   1.200

     PseudoPot. # 2 for O  read from file:
     /opt/espresso-5.3.0/pseudo/US_v1.5/o_pbe_v1.2.uspp.F.UPF
     MD5 check sum: 734c27235a0248c51dbae37a1fbe46ec
     Pseudo is Ultrasoft + core correction, Zval =  6.0
     Generated by new atomic code, or converted to UPF format
     Using radial grid of  737 points,  5 beta functions with: 
                l(1) =   0
                l(2) =   0
                l(3) =   1
                l(4) =   1
                l(5) =   2
     Q(r) pseudized with  8 coefficients,  rinner =    0.900   0.900   0.900
                                                       0.900   0.900

     atomic species   valence    mass     pseudopotential
        Mg            10.00    24.30500     Mg( 1.00)
        O              6.00    15.99940     O ( 1.00)

     48 Sym. Ops., with inversion, found



   Cartesian axes

     site n.     atom                  positions (alat units)
         1           Mg  tau(   1) = (   0.0000000   0.0000000   0.0000000  )
         2           O   tau(   2) = (   0.7071068   0.0000000   0.0000000  )

     number of k points=    35
                       cart. coord. in units 2pi/alat
        k(    1) = (   0.0000000   0.0000000   0.0000000), wk =   0.0027435
        k(    2) = (   0.0785674   0.0785674  -0.0785674), wk =   0.0219479
        k(    3) = (   0.1571348   0.1571348  -0.1571348), wk =   0.0219479
        k(    4) = (   0.2357023   0.2357023  -0.2357023), wk =   0.0219479
        k(    5) = (   0.3142697   0.3142697  -0.3142697), wk =   0.0219479
        k(    6) = (   0.1571348   0.0000000   0.0000000), wk =   0.0164609
        k(    7) = (   0.2357023   0.0785674  -0.0785674), wk =   0.0658436
        k(    8) = (   0.3142697   0.1571348  -0.1571348), wk =   0.0658436
        k(    9) = (   0.3928371   0.2357023  -0.2357023), wk =   0.0658436
        k(   10) = (  -0.2357023  -0.3928371   0.3928371), wk =   0.0658436
        k(   11) = (  -0.1571348  -0.3142697   0.3142697), wk =   0.0658436
        k(   12) = (  -0.0785674  -0.2357023   0.2357023), wk =   0.0658436
        k(   13) = (  -0.0000000  -0.1571348   0.1571348), wk =   0.0329218
        k(   14) = (   0.3142697   0.0000000   0.0000000), wk =   0.0164609
        k(   15) = (   0.3928371   0.0785674  -0.0785674), wk =   0.0658436
        k(   16) = (   0.4714045   0.1571348  -0.1571348), wk =   0.0658436
        k(   17) = (  -0.1571348  -0.4714045   0.4714045), wk =   0.0658436
        k(   18) = (  -0.0785674  -0.3928371   0.3928371), wk =   0.0658436
        k(   19) = (   0.0000000  -0.3142697   0.3142697), wk =   0.0329218
        k(   20) = (   0.4714045   0.0000000   0.0000000), wk =   0.0164609
        k(   21) = (   0.5499719   0.0785674  -0.0785674), wk =   0.0658436
        k(   22) = (  -0.0785674  -0.5499719   0.5499719), wk =   0.0658436
        k(   23) = (  -0.0000000  -0.4714045   0.4714045), wk =   0.0329218
        k(   24) = (   0.6285394   0.0000000   0.0000000), wk =   0.0164609
        k(   25) = (   0.0000000  -0.6285394   0.6285394), wk =   0.0329218
        k(   26) = (   0.3142697   0.1571348   0.0000000), wk =   0.0658436
        k(   27) = (   0.3928371   0.2357023  -0.0785674), wk =   0.1316872
        k(   28) = (  -0.2357023  -0.3928371   0.5499719), wk =   0.1316872
        k(   29) = (   0.4714045   0.1571348   0.0000000), wk =   0.0658436
        k(   30) = (  -0.1571348  -0.4714045   0.6285394), wk =   0.1316872
        k(   31) = (  -0.0785674  -0.3928371   0.5499719), wk =   0.1316872
        k(   32) = (   0.0000000  -0.3142697   0.4714045), wk =   0.0658436
        k(   33) = (  -0.0785674  -0.5499719   0.7071068), wk =   0.0658436
        k(   34) = (  -0.0000000  -0.4714045   0.6285394), wk =   0.0658436
        k(   35) = (  -0.0785674  -0.3928371   0.7071068), wk =   0.0658436

     Dense  grid:    22227 G-vectors     FFT dimensions: (  40,  40,  40)

     Smooth grid:     7823 G-vectors     FFT dimensions: (  27,  27,  27)

     Largest allocated arrays     est. size (Mb)     dimensions
        Kohn-Sham Wavefunctions         0.12 Mb     (    1002,    8)
        NL pseudopotentials             0.49 Mb     (    1002,   32)
        Each V/rho on FFT grid          0.98 Mb     (   64000)
        Each G-vector array             0.17 Mb     (   22227)
        G-vector shells                 0.00 Mb     (     258)
     Largest temporary arrays     est. size (Mb)     dimensions
        Auxiliary wavefunctions         0.49 Mb     (    1002,   32)
        Each subspace H/S matrix        0.02 Mb     (      32,   32)
        Each <psi_i|beta_j> matrix      0.00 Mb     (      32,    8)
        Arrays for rho mixing           7.81 Mb     (   64000,    8)

     Check: negative/imaginary core charge=   -0.000001    0.000000

     Initial potential from superposition of free atoms

     starting charge   15.69977, renormalised to   16.00000
     Starting wfc are    9 randomized atomic wfcs

     total cpu time spent up to now is        1.5 secs

     per-process dynamical memory:    19.2 Mb

     Self-consistent Calculation

     iteration #  1     ecut=    60.00 Ry     beta=0.50
     Davidson diagonalization with overlap
     ethr =  1.00E-04,  avg # of iterations =  3.0

     total cpu time spent up to now is        2.9 secs

     total energy              =    -157.76654725 Ry
     Harris-Foulkes estimate   =    -158.00472739 Ry
     estimated scf accuracy    <       0.37616385 Ry

     iteration #  2     ecut=    60.00 Ry     beta=0.50
     Davidson diagonalization with overlap
     ethr =  2.35E-03,  avg # of iterations =  2.0

     total cpu time spent up to now is        4.0 secs

     total energy              =    -157.86189779 Ry
     Harris-Foulkes estimate   =    -157.89372298 Ry
     estimated scf accuracy    <       0.07340119 Ry

     iteration #  3     ecut=    60.00 Ry     beta=0.50
     Davidson diagonalization with overlap
     ethr =  4.59E-04,  avg # of iterations =  2.0

     total cpu time spent up to now is        5.1 secs

     total energy              =    -157.87342661 Ry
     Harris-Foulkes estimate   =    -157.87466484 Ry
     estimated scf accuracy    <       0.00397656 Ry

     iteration #  4     ecut=    60.00 Ry     beta=0.50
     Davidson diagonalization with overlap
     ethr =  2.49E-05,  avg # of iterations =  1.6

     total cpu time spent up to now is        6.1 secs

     total energy              =    -157.87367485 Ry
     Harris-Foulkes estimate   =    -157.87369174 Ry
     estimated scf accuracy    <       0.00019908 Ry

     iteration #  5     ecut=    60.00 Ry     beta=0.50
     Davidson diagonalization with overlap
     ethr =  1.24E-06,  avg # of iterations =  2.0

     total cpu time spent up to now is        7.3 secs

     total energy              =    -157.87370445 Ry
     Harris-Foulkes estimate   =    -157.87371002 Ry
     estimated scf accuracy    <       0.00001713 Ry

     iteration #  6     ecut=    60.00 Ry     beta=0.50
     Davidson diagonalization with overlap
     ethr =  1.07E-07,  avg # of iterations =  2.0

     total cpu time spent up to now is        8.3 secs

     total energy              =    -157.87370844 Ry
     Harris-Foulkes estimate   =    -157.87370800 Ry
     estimated scf accuracy    <       0.00000047 Ry

     iteration #  7     ecut=    60.00 Ry     beta=0.50
     Davidson diagonalization with overlap
     ethr =  2.94E-09,  avg # of iterations =  2.0

     total cpu time spent up to now is        9.4 secs

     End of self-consistent calculation

          k = 0.0000 0.0000 0.0000 (   965 PWs)   bands (ev):

   -64.4921 -31.2368 -31.2368 -31.2368  -9.3930   7.8217   7.8217   7.8217

          k = 0.0786 0.0786-0.0786 (   968 PWs)   bands (ev):

   -64.4911 -31.2470 -31.2379 -31.2379  -9.2590   7.0438   7.7395   7.7395

          k = 0.1571 0.1571-0.1571 (   983 PWs)   bands (ev):

   -64.4886 -31.2726 -31.2404 -31.2404  -8.8995   5.5486   7.5391   7.5391

          k = 0.2357 0.2357-0.2357 (   977 PWs)   bands (ev):

   -64.4856 -31.3015 -31.2433 -31.2433  -8.4474   4.1610   7.3234   7.3234

          k = 0.3143 0.3143-0.3143 (   987 PWs)   bands (ev):

   -64.4837 -31.3202 -31.2452 -31.2452  -8.1200   3.3260   7.1887   7.1887

          k = 0.1571 0.0000 0.0000 (   970 PWs)   bands (ev):

   -64.4908 -31.2463 -31.2402 -31.2402  -9.2164   6.9699   7.6363   7.6363

          k = 0.2357 0.0786-0.0786 (   982 PWs)   bands (ev):

   -64.4887 -31.2651 -31.2437 -31.2421  -8.9373   5.8794   7.4252   7.4404

          k = 0.3143 0.1571-0.1571 (   980 PWs)   bands (ev):

   -64.4859 -31.2917 -31.2469 -31.2453  -8.5206   4.5972   7.1454   7.2128

          k = 0.3928 0.2357-0.2357 (   991 PWs)   bands (ev):

   -64.4837 -31.3127 -31.2494 -31.2481  -8.1500   3.6573   6.8649   7.0917

          k =-0.2357-0.3928 0.3928 (   994 PWs)   bands (ev):

   -64.4831 -31.3185 -31.2523 -31.2468  -8.0360   3.3980   6.7208   7.1096

          k =-0.1571-0.3143 0.3143 (   987 PWs)   bands (ev):

   -64.4843 -31.3068 -31.2524 -31.2437  -8.2539   3.9188   6.7735   7.2602

          k =-0.0786-0.2357 0.2357 (   983 PWs)   bands (ev):

   -64.4869 -31.2831 -31.2494 -31.2402  -8.6641   5.0066   7.0233   7.4832

          k =-0.0000-0.1571 0.1571 (   971 PWs)   bands (ev):

   -64.4896 -31.2594 -31.2437 -31.2378  -9.0516   6.2338   7.4117   7.6767

          k = 0.3143 0.0000 0.0000 (   982 PWs)   bands (ev):

   -64.4874 -31.2691 -31.2486 -31.2486  -8.7637   5.5270   7.2062   7.2062

          k = 0.3928 0.0786-0.0786 (   987 PWs)   bands (ev):

   -64.4851 -31.2864 -31.2533 -31.2528  -8.4418   4.7537   6.8530   6.9919

          k = 0.4714 0.1571-0.1571 (   994 PWs)   bands (ev):

   -64.4830 -31.3025 -31.2602 -31.2543  -8.1078   4.1044   6.3022   6.8747

          k =-0.1571-0.4714 0.4714 (   987 PWs)   bands (ev):

   -64.4820 -31.3085 -31.2675 -31.2524  -7.9337   3.8574   5.8346   6.9000

          k =-0.0786-0.3928 0.3928 (   990 PWs)   bands (ev):

   -64.4826 -31.3035 -31.2701 -31.2480  -8.0231   4.0662   5.7387   7.0592

          k = 0.0000-0.3143 0.3143 (   987 PWs)   bands (ev):

   -64.4846 -31.2934 -31.2631 -31.2432  -8.3205   4.5056   6.2081   7.2888

          k = 0.4714 0.0000 0.0000 (  1002 PWs)   bands (ev):

   -64.4835 -31.2932 -31.2583 -31.2583  -8.2415   4.4019   6.7727   6.7727

          k = 0.5500 0.0786-0.0786 (   992 PWs)   bands (ev):

   -64.4819 -31.3018 -31.2650 -31.2608  -8.0078   4.0834   6.3295   6.6497

          k =-0.0786-0.5500 0.5500 (   986 PWs)   bands (ev):

   -64.4810 -31.3012 -31.2773 -31.2592  -7.8549   4.1683   5.4865   6.6702

          k =-0.0000-0.4714 0.4714 (   981 PWs)   bands (ev):

   -64.4813 -31.2927 -31.2885 -31.2541  -7.8623   4.6101   4.7783   6.8273

          k = 0.6285 0.0000 0.0000 (   998 PWs)   bands (ev):

   -64.4809 -31.3077 -31.2647 -31.2647  -7.8988   3.8365   6.5154   6.5154

          k = 0.0000-0.6285 0.6285 (   997 PWs)   bands (ev):

   -64.4806 -31.3070 -31.2700 -31.2640  -7.8384   3.8861   6.1171   6.5231

          k = 0.3143 0.1571 0.0000 (   990 PWs)   bands (ev):

   -64.4866 -31.2796 -31.2527 -31.2437  -8.6342   5.1217   6.8959   7.3250

          k = 0.3928 0.2357-0.0786 (   993 PWs)   bands (ev):

   -64.4841 -31.2976 -31.2598 -31.2472  -8.2608   4.3169   6.3989   7.1038

          k =-0.2357-0.3928 0.5500 (   994 PWs)   bands (ev):

   -64.4825 -31.3099 -31.2626 -31.2505  -7.9968   3.7859   6.1301   6.9368

          k = 0.4714 0.1571 0.0000 (   999 PWs)   bands (ev):

   -64.4831 -31.2960 -31.2630 -31.2553  -8.1647   4.3402   6.3815   6.7794

          k =-0.1571-0.4714 0.6285 (   991 PWs)   bands (ev):

   -64.4816 -31.3010 -31.2719 -31.2583  -7.9305   4.1795   5.7440   6.5995

          k =-0.0786-0.3928 0.5500 (   993 PWs)   bands (ev):

   -64.4813 -31.2992 -31.2793 -31.2568  -7.8623   4.3020   5.2502   6.6386

          k = 0.0000-0.3143 0.4714 (   993 PWs)   bands (ev):

   -64.4823 -31.2981 -31.2749 -31.2518  -7.9977   4.3001   5.5479   6.8548

          k =-0.0786-0.5500 0.7071 (   989 PWs)   bands (ev):

   -64.4809 -31.3036 -31.2697 -31.2649  -7.8657   4.0322   6.0781   6.3628

          k =-0.0000-0.4714 0.6285 (   997 PWs)   bands (ev):

   -64.4807 -31.2974 -31.2807 -31.2632  -7.8089   4.3447   5.3342   6.3792

          k =-0.0786-0.3928 0.7071 (   995 PWs)   bands (ev):

   -64.4808 -31.2932 -31.2826 -31.2645  -7.8130   4.5720   5.1677   6.2129

     highest occupied level (ev):     7.8217

!    total energy              =    -157.87370850 Ry
     Harris-Foulkes estimate   =    -157.87370851 Ry
     estimated scf accuracy    <       0.00000005 Ry

     The total energy is the sum of the following terms:

     one-electron contribution =     -86.91293657 Ry
     hartree contribution      =      48.29667462 Ry
     xc contribution           =     -24.49249751 Ry
     ewald contribution        =     -94.76494903 Ry

     convergence has been achieved in   7 iterations

     Writing output data file MgO.save

     init_run     :      1.46s CPU      1.38s WALL (       1 calls)
     electrons    :      8.99s CPU      7.90s WALL (       1 calls)

     Called by init_run:
     wfcinit      :      0.38s CPU      0.32s WALL (       1 calls)
     potinit      :      0.08s CPU      0.07s WALL (       1 calls)

     Called by electrons:
     c_bands      :      6.03s CPU      5.16s WALL (       7 calls)
     sum_band     :      1.88s CPU      1.76s WALL (       7 calls)
     v_of_rho     :      0.48s CPU      0.41s WALL (       8 calls)
     newd         :      0.68s CPU      0.65s WALL (       8 calls)
     mix_rho      :      0.03s CPU      0.03s WALL (       7 calls)

     Called by c_bands:
     init_us_2    :      0.32s CPU      0.35s WALL (     525 calls)
     cegterg      :      5.38s CPU      4.65s WALL (     245 calls)

     Called by sum_band:
     sum_band:bec :      0.01s CPU      0.00s WALL (     245 calls)
     addusdens    :      0.77s CPU      0.75s WALL (       7 calls)

     Called by *egterg:
     h_psi        :      4.92s CPU      4.28s WALL (     790 calls)
     s_psi        :      0.14s CPU      0.11s WALL (     790 calls)
     g_psi        :      0.03s CPU      0.03s WALL (     510 calls)
     cdiaghg      :      0.20s CPU      0.18s WALL (     755 calls)

     Called by h_psi:
     add_vuspsi   :      0.09s CPU      0.12s WALL (     790 calls)

     General routines
     calbec       :      0.21s CPU      0.18s WALL (    1035 calls)
     fft          :      0.22s CPU      0.20s WALL (     124 calls)
     ffts         :      0.02s CPU      0.01s WALL (      15 calls)
     fftw         :      4.70s CPU      4.02s WALL (   13076 calls)
     interpolate  :      0.04s CPU      0.04s WALL (      15 calls)
     davcio       :      0.00s CPU      0.00s WALL (      35 calls)


     PWSCF        :    10.67s CPU         9.50s WALL


   This run was terminated on:  15:38:11   2Mar2018            

=------------------------------------------------------------------------------=
   JOB DONE.
=------------------------------------------------------------------------------=
