
     Program PWSCF v.5.3.0 (svn rev. 11974) starts on  2Mar2018 at 15:38:33 

     This program is part of the open-source Quantum ESPRESSO suite
     for quantum simulation of materials; please cite
         "P. Giannozzi et al., J. Phys.:Condens. Matter 21 395502 (2009);
          URL http://www.quantum-espresso.org", 
     in publications or presentations arising from this work. More details at
     http://www.quantum-espresso.org/quote

     Serial version
     Waiting for input...
     Reading input from standard input

     Current dimensions of program PWSCF are:
     Max number of different atomic species (ntypx) = 10
     Max number of k-points (npk) =  40000
     Max angular momentum in pseudopotentials (lmaxx) =  3

     Atomic positions and unit cell read from directory:
     ./tmp/MgO.save/


     G-vector sticks info
     --------------------
     sticks:   dense  smooth     PW     G-vecs:    dense   smooth      PW
     Sum        1039     517    163                22227     7823    1363



     bravais-lattice index     =            0
     lattice parameter (alat)  =       5.6284  a.u.
     unit-cell volume          =     126.0797 (a.u.)^3
     number of atoms/cell      =            2
     number of atomic types    =            2
     number of electrons       =        16.00
     number of Kohn-Sham states=           11
     kinetic-energy cutoff     =      60.0000  Ry
     charge density cutoff     =     480.0000  Ry
     Exchange-correlation      = SLA  PW   PBE  PBE ( 1  4  3  4 0 0)

     celldm(1)=   5.628422  celldm(2)=   0.000000  celldm(3)=   0.000000
     celldm(4)=   0.000000  celldm(5)=   0.000000  celldm(6)=   0.000000

     crystal axes: (cart. coord. in units of alat)
               a(1) = (   0.000000   0.707107   0.707107 )  
               a(2) = (   0.707107   0.000000   0.707107 )  
               a(3) = (   0.707107   0.707107   0.000000 )  

     reciprocal axes: (cart. coord. in units 2 pi/alat)
               b(1) = ( -0.707107  0.707107  0.707107 )  
               b(2) = (  0.707107 -0.707107  0.707107 )  
               b(3) = (  0.707107  0.707107 -0.707107 )  


     PseudoPot. # 1 for Mg read from file:
     /opt/espresso-5.3.0/pseudo/US_v1.5/mg_pbe_v1.4.uspp.F.UPF
     MD5 check sum: 8ffbd8f729fef71095aac5bd8316fb1f
     Pseudo is Ultrasoft, Zval = 10.0
     Generated by new atomic code, or converted to UPF format
     Using radial grid of  821 points,  7 beta functions with: 
                l(1) =   0
                l(2) =   0
                l(3) =   0
                l(4) =   1
                l(5) =   1
                l(6) =   2
                l(7) =   2
     Q(r) pseudized with  8 coefficients,  rinner =    1.200   1.200   1.200
                                                       1.200   1.200

     PseudoPot. # 2 for O  read from file:
     /opt/espresso-5.3.0/pseudo/US_v1.5/o_pbe_v1.2.uspp.F.UPF
     MD5 check sum: 734c27235a0248c51dbae37a1fbe46ec
     Pseudo is Ultrasoft + core correction, Zval =  6.0
     Generated by new atomic code, or converted to UPF format
     Using radial grid of  737 points,  5 beta functions with: 
                l(1) =   0
                l(2) =   0
                l(3) =   1
                l(4) =   1
                l(5) =   2
     Q(r) pseudized with  8 coefficients,  rinner =    0.900   0.900   0.900
                                                       0.900   0.900

     atomic species   valence    mass     pseudopotential
        Mg            10.00    24.30500     Mg( 1.00)
        O              6.00    15.99940     O ( 1.00)

     48 Sym. Ops., with inversion, found



   Cartesian axes

     site n.     atom                  positions (alat units)
         1           Mg  tau(   1) = (   0.0000000   0.0000000   0.0000000  )
         2           O   tau(   2) = (   0.7071068   0.0000000   0.0000000  )

     number of k points=   261

     Number of k-points >= 100: set verbosity='high' to print them.

     Dense  grid:    22227 G-vectors     FFT dimensions: (  40,  40,  40)

     Smooth grid:     7823 G-vectors     FFT dimensions: (  27,  27,  27)

     Largest allocated arrays     est. size (Mb)     dimensions
        Kohn-Sham Wavefunctions         0.17 Mb     (    1010,   11)
        NL pseudopotentials             0.49 Mb     (    1010,   32)
        Each V/rho on FFT grid          0.98 Mb     (   64000)
        Each G-vector array             0.17 Mb     (   22227)
        G-vector shells                 0.00 Mb     (     258)
     Largest temporary arrays     est. size (Mb)     dimensions
        Auxiliary wavefunctions         0.68 Mb     (    1010,   44)
        Each subspace H/S matrix        0.03 Mb     (      44,   44)
        Each <psi_i|beta_j> matrix      0.01 Mb     (      32,   11)

     Check: negative/imaginary core charge=   -0.000001    0.000000

     The potential is recalculated from file :
     ./tmp/MgO.save/charge-density.dat

     Starting wfc are    9 randomized atomic wfcs +    2 random wfc

     Band Structure Calculation
     Davidson diagonalization with overlap

     ethr =  6.25E-09,  avg # of iterations = 10.6

     total cpu time spent up to now is       24.2 secs

     End of band structure calculation

     Number of k-points >= 100: set verbosity='high' to print the bands.

     Writing output data file MgO.save

     init_run     :      1.05s CPU      1.07s WALL (       1 calls)
     electrons    :     26.78s CPU     22.89s WALL (       1 calls)

     Called by init_run:
     wfcinit      :      0.00s CPU      0.00s WALL (       1 calls)
     potinit      :      0.06s CPU      0.06s WALL (       1 calls)

     Called by electrons:
     c_bands      :     26.78s CPU     22.89s WALL (       1 calls)
     v_of_rho     :      0.05s CPU      0.05s WALL (       1 calls)
     newd         :      0.07s CPU      0.09s WALL (       1 calls)

     Called by c_bands:
     init_us_2    :      0.19s CPU      0.18s WALL (     261 calls)
     cegterg      :     23.25s CPU     19.82s WALL (     261 calls)

     Called by sum_band:

     Called by *egterg:
     h_psi        :     19.38s CPU     17.19s WALL (    3287 calls)
     s_psi        :      0.52s CPU      0.44s WALL (    3287 calls)
     g_psi        :      0.20s CPU      0.14s WALL (    2765 calls)
     cdiaghg      :      2.79s CPU      2.16s WALL (    3026 calls)

     Called by h_psi:
     add_vuspsi   :      0.55s CPU      0.47s WALL (    3287 calls)

     General routines
     calbec       :      0.60s CPU      0.57s WALL (    3287 calls)
     fft          :      0.02s CPU      0.02s WALL (      13 calls)
     ffts         :      0.00s CPU      0.00s WALL (       1 calls)
     fftw         :     15.55s CPU     13.82s WALL (   44204 calls)
     interpolate  :      0.00s CPU      0.00s WALL (       1 calls)
     davcio       :      0.02s CPU      0.03s WALL (     261 calls)


     PWSCF        :    28.32s CPU        24.46s WALL


   This run was terminated on:  15:38:58   2Mar2018            

=------------------------------------------------------------------------------=
   JOB DONE.
=------------------------------------------------------------------------------=
